../lammps.in
5324	atoms
1 atom types # Cu
0 39.765000 xlo xhi
0 39.765000 ylo yhi
0 39.765000 zlo zhi

Atoms

1	1	-18.0750000	-18.0750000	-18.0750000
2	1	-16.2675000	-16.2675000	-18.0750000
3	1	-18.0750000	-16.2675000	-16.2675000
4	1	-16.2675000	-18.0750000	-16.2675000
5	1	-18.0750000	-18.0750000	-14.4600000
6	1	-16.2675000	-16.2675000	-14.4600000
7	1	-18.0750000	-16.2675000	-12.6525000
8	1	-16.2675000	-18.0750000	-12.6525000
9	1	-18.0750000	-18.0750000	-10.8450000
10	1	-16.2675000	-16.2675000	-10.8450000
11	1	-18.0750000	-16.2675000	-9.0375000
12	1	-16.2675000	-18.0750000	-9.0375000
13	1	-18.0750000	-18.0750000	-7.2300000
14	1	-16.2675000	-16.2675000	-7.2300000
15	1	-18.0750000	-16.2675000	-5.4225000
16	1	-16.2675000	-18.0750000	-5.4225000
17	1	-18.0750000	-18.0750000	-3.6150000
18	1	-16.2675000	-16.2675000	-3.6150000
19	1	-18.0750000	-16.2675000	-1.8075000
20	1	-16.2675000	-18.0750000	-1.8075000
21	1	-18.0750000	-18.0750000	0.0000000
22	1	-16.2675000	-16.2675000	0.0000000
23	1	-18.0750000	-16.2675000	1.8075000
24	1	-16.2675000	-18.0750000	1.8075000
25	1	-18.0750000	-18.0750000	3.6150000
26	1	-16.2675000	-16.2675000	3.6150000
27	1	-18.0750000	-16.2675000	5.4225000
28	1	-16.2675000	-18.0750000	5.4225000
29	1	-18.0750000	-18.0750000	7.2300000
30	1	-16.2675000	-16.2675000	7.2300000
31	1	-18.0750000	-16.2675000	9.0375000
32	1	-16.2675000	-18.0750000	9.0375000
33	1	-18.0750000	-18.0750000	10.8450000
34	1	-16.2675000	-16.2675000	10.8450000
35	1	-18.0750000	-16.2675000	12.6525000
36	1	-16.2675000	-18.0750000	12.6525000
37	1	-18.0750000	-18.0750000	14.4600000
38	1	-16.2675000	-16.2675000	14.4600000
39	1	-18.0750000	-16.2675000	16.2675000
40	1	-16.2675000	-18.0750000	16.2675000
41	1	-18.0750000	-18.0750000	18.0750000
42	1	-16.2675000	-16.2675000	18.0750000
43	1	-18.0750000	-16.2675000	19.8825000
44	1	-16.2675000	-18.0750000	19.8825000
45	1	-18.0750000	-14.4600000	-18.0750000
46	1	-16.2675000	-12.6525000	-18.0750000
47	1	-18.0750000	-12.6525000	-16.2675000
48	1	-16.2675000	-14.4600000	-16.2675000
49	1	-18.0750000	-14.4600000	-14.4600000
50	1	-16.2675000	-12.6525000	-14.4600000
51	1	-18.0750000	-12.6525000	-12.6525000
52	1	-16.2675000	-14.4600000	-12.6525000
53	1	-18.0750000	-14.4600000	-10.8450000
54	1	-16.2675000	-12.6525000	-10.8450000
55	1	-18.0750000	-12.6525000	-9.0375000
56	1	-16.2675000	-14.4600000	-9.0375000
57	1	-18.0750000	-14.4600000	-7.2300000
58	1	-16.2675000	-12.6525000	-7.2300000
59	1	-18.0750000	-12.6525000	-5.4225000
60	1	-16.2675000	-14.4600000	-5.4225000
61	1	-18.0750000	-14.4600000	-3.6150000
62	1	-16.2675000	-12.6525000	-3.6150000
63	1	-18.0750000	-12.6525000	-1.8075000
64	1	-16.2675000	-14.4600000	-1.8075000
65	1	-18.0750000	-14.4600000	0.0000000
66	1	-16.2675000	-12.6525000	0.0000000
67	1	-18.0750000	-12.6525000	1.8075000
68	1	-16.2675000	-14.4600000	1.8075000
69	1	-18.0750000	-14.4600000	3.6150000
70	1	-16.2675000	-12.6525000	3.6150000
71	1	-18.0750000	-12.6525000	5.4225000
72	1	-16.2675000	-14.4600000	5.4225000
73	1	-18.0750000	-14.4600000	7.2300000
74	1	-16.2675000	-12.6525000	7.2300000
75	1	-18.0750000	-12.6525000	9.0375000
76	1	-16.2675000	-14.4600000	9.0375000
77	1	-18.0750000	-14.4600000	10.8450000
78	1	-16.2675000	-12.6525000	10.8450000
79	1	-18.0750000	-12.6525000	12.6525000
80	1	-16.2675000	-14.4600000	12.6525000
81	1	-18.0750000	-14.4600000	14.4600000
82	1	-16.2675000	-12.6525000	14.4600000
83	1	-18.0750000	-12.6525000	16.2675000
84	1	-16.2675000	-14.4600000	16.2675000
85	1	-18.0750000	-14.4600000	18.0750000
86	1	-16.2675000	-12.6525000	18.0750000
87	1	-18.0750000	-12.6525000	19.8825000
88	1	-16.2675000	-14.4600000	19.8825000
89	1	-18.0750000	-10.8450000	-18.0750000
90	1	-16.2675000	-9.0375000	-18.0750000
91	1	-18.0750000	-9.0375000	-16.2675000
92	1	-16.2675000	-10.8450000	-16.2675000
93	1	-18.0750000	-10.8450000	-14.4600000
94	1	-16.2675000	-9.0375000	-14.4600000
95	1	-18.0750000	-9.0375000	-12.6525000
96	1	-16.2675000	-10.8450000	-12.6525000
97	1	-18.0750000	-10.8450000	-10.8450000
98	1	-16.2675000	-9.0375000	-10.8450000
99	1	-18.0750000	-9.0375000	-9.0375000
100	1	-16.2675000	-10.8450000	-9.0375000
101	1	-18.0750000	-10.8450000	-7.2300000
102	1	-16.2675000	-9.0375000	-7.2300000
103	1	-18.0750000	-9.0375000	-5.4225000
104	1	-16.2675000	-10.8450000	-5.4225000
105	1	-18.0750000	-10.8450000	-3.6150000
106	1	-16.2675000	-9.0375000	-3.6150000
107	1	-18.0750000	-9.0375000	-1.8075000
108	1	-16.2675000	-10.8450000	-1.8075000
109	1	-18.0750000	-10.8450000	0.0000000
110	1	-16.2675000	-9.0375000	0.0000000
111	1	-18.0750000	-9.0375000	1.8075000
112	1	-16.2675000	-10.8450000	1.8075000
113	1	-18.0750000	-10.8450000	3.6150000
114	1	-16.2675000	-9.0375000	3.6150000
115	1	-18.0750000	-9.0375000	5.4225000
116	1	-16.2675000	-10.8450000	5.4225000
117	1	-18.0750000	-10.8450000	7.2300000
118	1	-16.2675000	-9.0375000	7.2300000
119	1	-18.0750000	-9.0375000	9.0375000
120	1	-16.2675000	-10.8450000	9.0375000
121	1	-18.0750000	-10.8450000	10.8450000
122	1	-16.2675000	-9.0375000	10.8450000
123	1	-18.0750000	-9.0375000	12.6525000
124	1	-16.2675000	-10.8450000	12.6525000
125	1	-18.0750000	-10.8450000	14.4600000
126	1	-16.2675000	-9.0375000	14.4600000
127	1	-18.0750000	-9.0375000	16.2675000
128	1	-16.2675000	-10.8450000	16.2675000
129	1	-18.0750000	-10.8450000	18.0750000
130	1	-16.2675000	-9.0375000	18.0750000
131	1	-18.0750000	-9.0375000	19.8825000
132	1	-16.2675000	-10.8450000	19.8825000
133	1	-18.0750000	-7.2300000	-18.0750000
134	1	-16.2675000	-5.4225000	-18.0750000
135	1	-18.0750000	-5.4225000	-16.2675000
136	1	-16.2675000	-7.2300000	-16.2675000
137	1	-18.0750000	-7.2300000	-14.4600000
138	1	-16.2675000	-5.4225000	-14.4600000
139	1	-18.0750000	-5.4225000	-12.6525000
140	1	-16.2675000	-7.2300000	-12.6525000
141	1	-18.0750000	-7.2300000	-10.8450000
142	1	-16.2675000	-5.4225000	-10.8450000
143	1	-18.0750000	-5.4225000	-9.0375000
144	1	-16.2675000	-7.2300000	-9.0375000
145	1	-18.0750000	-7.2300000	-7.2300000
146	1	-16.2675000	-5.4225000	-7.2300000
147	1	-18.0750000	-5.4225000	-5.4225000
148	1	-16.2675000	-7.2300000	-5.4225000
149	1	-18.0750000	-7.2300000	-3.6150000
150	1	-16.2675000	-5.4225000	-3.6150000
151	1	-18.0750000	-5.4225000	-1.8075000
152	1	-16.2675000	-7.2300000	-1.8075000
153	1	-18.0750000	-7.2300000	0.0000000
154	1	-16.2675000	-5.4225000	0.0000000
155	1	-18.0750000	-5.4225000	1.8075000
156	1	-16.2675000	-7.2300000	1.8075000
157	1	-18.0750000	-7.2300000	3.6150000
158	1	-16.2675000	-5.4225000	3.6150000
159	1	-18.0750000	-5.4225000	5.4225000
160	1	-16.2675000	-7.2300000	5.4225000
161	1	-18.0750000	-7.2300000	7.2300000
162	1	-16.2675000	-5.4225000	7.2300000
163	1	-18.0750000	-5.4225000	9.0375000
164	1	-16.2675000	-7.2300000	9.0375000
165	1	-18.0750000	-7.2300000	10.8450000
166	1	-16.2675000	-5.4225000	10.8450000
167	1	-18.0750000	-5.4225000	12.6525000
168	1	-16.2675000	-7.2300000	12.6525000
169	1	-18.0750000	-7.2300000	14.4600000
170	1	-16.2675000	-5.4225000	14.4600000
171	1	-18.0750000	-5.4225000	16.2675000
172	1	-16.2675000	-7.2300000	16.2675000
173	1	-18.0750000	-7.2300000	18.0750000
174	1	-16.2675000	-5.4225000	18.0750000
175	1	-18.0750000	-5.4225000	19.8825000
176	1	-16.2675000	-7.2300000	19.8825000
177	1	-18.0750000	-3.6150000	-18.0750000
178	1	-16.2675000	-1.8075000	-18.0750000
179	1	-18.0750000	-1.8075000	-16.2675000
180	1	-16.2675000	-3.6150000	-16.2675000
181	1	-18.0750000	-3.6150000	-14.4600000
182	1	-16.2675000	-1.8075000	-14.4600000
183	1	-18.0750000	-1.8075000	-12.6525000
184	1	-16.2675000	-3.6150000	-12.6525000
185	1	-18.0750000	-3.6150000	-10.8450000
186	1	-16.2675000	-1.8075000	-10.8450000
187	1	-18.0750000	-1.8075000	-9.0375000
188	1	-16.2675000	-3.6150000	-9.0375000
189	1	-18.0750000	-3.6150000	-7.2300000
190	1	-16.2675000	-1.8075000	-7.2300000
191	1	-18.0750000	-1.8075000	-5.4225000
192	1	-16.2675000	-3.6150000	-5.4225000
193	1	-18.0750000	-3.6150000	-3.6150000
194	1	-16.2675000	-1.8075000	-3.6150000
195	1	-18.0750000	-1.8075000	-1.8075000
196	1	-16.2675000	-3.6150000	-1.8075000
197	1	-18.0750000	-3.6150000	0.0000000
198	1	-16.2675000	-1.8075000	0.0000000
199	1	-18.0750000	-1.8075000	1.8075000
200	1	-16.2675000	-3.6150000	1.8075000
201	1	-18.0750000	-3.6150000	3.6150000
202	1	-16.2675000	-1.8075000	3.6150000
203	1	-18.0750000	-1.8075000	5.4225000
204	1	-16.2675000	-3.6150000	5.4225000
205	1	-18.0750000	-3.6150000	7.2300000
206	1	-16.2675000	-1.8075000	7.2300000
207	1	-18.0750000	-1.8075000	9.0375000
208	1	-16.2675000	-3.6150000	9.0375000
209	1	-18.0750000	-3.6150000	10.8450000
210	1	-16.2675000	-1.8075000	10.8450000
211	1	-18.0750000	-1.8075000	12.6525000
212	1	-16.2675000	-3.6150000	12.6525000
213	1	-18.0750000	-3.6150000	14.4600000
214	1	-16.2675000	-1.8075000	14.4600000
215	1	-18.0750000	-1.8075000	16.2675000
216	1	-16.2675000	-3.6150000	16.2675000
217	1	-18.0750000	-3.6150000	18.0750000
218	1	-16.2675000	-1.8075000	18.0750000
219	1	-18.0750000	-1.8075000	19.8825000
220	1	-16.2675000	-3.6150000	19.8825000
221	1	-18.0750000	0.0000000	-18.0750000
222	1	-16.2675000	1.8075000	-18.0750000
223	1	-18.0750000	1.8075000	-16.2675000
224	1	-16.2675000	0.0000000	-16.2675000
225	1	-18.0750000	0.0000000	-14.4600000
226	1	-16.2675000	1.8075000	-14.4600000
227	1	-18.0750000	1.8075000	-12.6525000
228	1	-16.2675000	0.0000000	-12.6525000
229	1	-18.0750000	0.0000000	-10.8450000
230	1	-16.2675000	1.8075000	-10.8450000
231	1	-18.0750000	1.8075000	-9.0375000
232	1	-16.2675000	0.0000000	-9.0375000
233	1	-18.0750000	0.0000000	-7.2300000
234	1	-16.2675000	1.8075000	-7.2300000
235	1	-18.0750000	1.8075000	-5.4225000
236	1	-16.2675000	0.0000000	-5.4225000
237	1	-18.0750000	0.0000000	-3.6150000
238	1	-16.2675000	1.8075000	-3.6150000
239	1	-18.0750000	1.8075000	-1.8075000
240	1	-16.2675000	0.0000000	-1.8075000
241	1	-18.0750000	0.0000000	0.0000000
242	1	-16.2675000	1.8075000	0.0000000
243	1	-18.0750000	1.8075000	1.8075000
244	1	-16.2675000	-0.0000000	1.8075000
245	1	-18.0750000	-0.0000000	3.6150000
246	1	-16.2675000	1.8075000	3.6150000
247	1	-18.0750000	1.8075000	5.4225000
248	1	-16.2675000	-0.0000000	5.4225000
249	1	-18.0750000	-0.0000000	7.2300000
250	1	-16.2675000	1.8075000	7.2300000
251	1	-18.0750000	1.8075000	9.0375000
252	1	-16.2675000	-0.0000000	9.0375000
253	1	-18.0750000	-0.0000000	10.8450000
254	1	-16.2675000	1.8075000	10.8450000
255	1	-18.0750000	1.8075000	12.6525000
256	1	-16.2675000	-0.0000000	12.6525000
257	1	-18.0750000	-0.0000000	14.4600000
258	1	-16.2675000	1.8075000	14.4600000
259	1	-18.0750000	1.8075000	16.2675000
260	1	-16.2675000	-0.0000000	16.2675000
261	1	-18.0750000	-0.0000000	18.0750000
262	1	-16.2675000	1.8075000	18.0750000
263	1	-18.0750000	1.8075000	19.8825000
264	1	-16.2675000	-0.0000000	19.8825000
265	1	-18.0750000	3.6150000	-18.0750000
266	1	-16.2675000	5.4225000	-18.0750000
267	1	-18.0750000	5.4225000	-16.2675000
268	1	-16.2675000	3.6150000	-16.2675000
269	1	-18.0750000	3.6150000	-14.4600000
270	1	-16.2675000	5.4225000	-14.4600000
271	1	-18.0750000	5.4225000	-12.6525000
272	1	-16.2675000	3.6150000	-12.6525000
273	1	-18.0750000	3.6150000	-10.8450000
274	1	-16.2675000	5.4225000	-10.8450000
275	1	-18.0750000	5.4225000	-9.0375000
276	1	-16.2675000	3.6150000	-9.0375000
277	1	-18.0750000	3.6150000	-7.2300000
278	1	-16.2675000	5.4225000	-7.2300000
279	1	-18.0750000	5.4225000	-5.4225000
280	1	-16.2675000	3.6150000	-5.4225000
281	1	-18.0750000	3.6150000	-3.6150000
282	1	-16.2675000	5.4225000	-3.6150000
283	1	-18.0750000	5.4225000	-1.8075000
284	1	-16.2675000	3.6150000	-1.8075000
285	1	-18.0750000	3.6150000	0.0000000
286	1	-16.2675000	5.4225000	0.0000000
287	1	-18.0750000	5.4225000	1.8075000
288	1	-16.2675000	3.6150000	1.8075000
289	1	-18.0750000	3.6150000	3.6150000
290	1	-16.2675000	5.4225000	3.6150000
291	1	-18.0750000	5.4225000	5.4225000
292	1	-16.2675000	3.6150000	5.4225000
293	1	-18.0750000	3.6150000	7.2300000
294	1	-16.2675000	5.4225000	7.2300000
295	1	-18.0750000	5.4225000	9.0375000
296	1	-16.2675000	3.6150000	9.0375000
297	1	-18.0750000	3.6150000	10.8450000
298	1	-16.2675000	5.4225000	10.8450000
299	1	-18.0750000	5.4225000	12.6525000
300	1	-16.2675000	3.6150000	12.6525000
301	1	-18.0750000	3.6150000	14.4600000
302	1	-16.2675000	5.4225000	14.4600000
303	1	-18.0750000	5.4225000	16.2675000
304	1	-16.2675000	3.6150000	16.2675000
305	1	-18.0750000	3.6150000	18.0750000
306	1	-16.2675000	5.4225000	18.0750000
307	1	-18.0750000	5.4225000	19.8825000
308	1	-16.2675000	3.6150000	19.8825000
309	1	-18.0750000	7.2300000	-18.0750000
310	1	-16.2675000	9.0375000	-18.0750000
311	1	-18.0750000	9.0375000	-16.2675000
312	1	-16.2675000	7.2300000	-16.2675000
313	1	-18.0750000	7.2300000	-14.4600000
314	1	-16.2675000	9.0375000	-14.4600000
315	1	-18.0750000	9.0375000	-12.6525000
316	1	-16.2675000	7.2300000	-12.6525000
317	1	-18.0750000	7.2300000	-10.8450000
318	1	-16.2675000	9.0375000	-10.8450000
319	1	-18.0750000	9.0375000	-9.0375000
320	1	-16.2675000	7.2300000	-9.0375000
321	1	-18.0750000	7.2300000	-7.2300000
322	1	-16.2675000	9.0375000	-7.2300000
323	1	-18.0750000	9.0375000	-5.4225000
324	1	-16.2675000	7.2300000	-5.4225000
325	1	-18.0750000	7.2300000	-3.6150000
326	1	-16.2675000	9.0375000	-3.6150000
327	1	-18.0750000	9.0375000	-1.8075000
328	1	-16.2675000	7.2300000	-1.8075000
329	1	-18.0750000	7.2300000	0.0000000
330	1	-16.2675000	9.0375000	0.0000000
331	1	-18.0750000	9.0375000	1.8075000
332	1	-16.2675000	7.2300000	1.8075000
333	1	-18.0750000	7.2300000	3.6150000
334	1	-16.2675000	9.0375000	3.6150000
335	1	-18.0750000	9.0375000	5.4225000
336	1	-16.2675000	7.2300000	5.4225000
337	1	-18.0750000	7.2300000	7.2300000
338	1	-16.2675000	9.0375000	7.2300000
339	1	-18.0750000	9.0375000	9.0375000
340	1	-16.2675000	7.2300000	9.0375000
341	1	-18.0750000	7.2300000	10.8450000
342	1	-16.2675000	9.0375000	10.8450000
343	1	-18.0750000	9.0375000	12.6525000
344	1	-16.2675000	7.2300000	12.6525000
345	1	-18.0750000	7.2300000	14.4600000
346	1	-16.2675000	9.0375000	14.4600000
347	1	-18.0750000	9.0375000	16.2675000
348	1	-16.2675000	7.2300000	16.2675000
349	1	-18.0750000	7.2300000	18.0750000
350	1	-16.2675000	9.0375000	18.0750000
351	1	-18.0750000	9.0375000	19.8825000
352	1	-16.2675000	7.2300000	19.8825000
353	1	-18.0750000	10.8450000	-18.0750000
354	1	-16.2675000	12.6525000	-18.0750000
355	1	-18.0750000	12.6525000	-16.2675000
356	1	-16.2675000	10.8450000	-16.2675000
357	1	-18.0750000	10.8450000	-14.4600000
358	1	-16.2675000	12.6525000	-14.4600000
359	1	-18.0750000	12.6525000	-12.6525000
360	1	-16.2675000	10.8450000	-12.6525000
361	1	-18.0750000	10.8450000	-10.8450000
362	1	-16.2675000	12.6525000	-10.8450000
363	1	-18.0750000	12.6525000	-9.0375000
364	1	-16.2675000	10.8450000	-9.0375000
365	1	-18.0750000	10.8450000	-7.2300000
366	1	-16.2675000	12.6525000	-7.2300000
367	1	-18.0750000	12.6525000	-5.4225000
368	1	-16.2675000	10.8450000	-5.4225000
369	1	-18.0750000	10.8450000	-3.6150000
370	1	-16.2675000	12.6525000	-3.6150000
371	1	-18.0750000	12.6525000	-1.8075000
372	1	-16.2675000	10.8450000	-1.8075000
373	1	-18.0750000	10.8450000	0.0000000
374	1	-16.2675000	12.6525000	0.0000000
375	1	-18.0750000	12.6525000	1.8075000
376	1	-16.2675000	10.8450000	1.8075000
377	1	-18.0750000	10.8450000	3.6150000
378	1	-16.2675000	12.6525000	3.6150000
379	1	-18.0750000	12.6525000	5.4225000
380	1	-16.2675000	10.8450000	5.4225000
381	1	-18.0750000	10.8450000	7.2300000
382	1	-16.2675000	12.6525000	7.2300000
383	1	-18.0750000	12.6525000	9.0375000
384	1	-16.2675000	10.8450000	9.0375000
385	1	-18.0750000	10.8450000	10.8450000
386	1	-16.2675000	12.6525000	10.8450000
387	1	-18.0750000	12.6525000	12.6525000
388	1	-16.2675000	10.8450000	12.6525000
389	1	-18.0750000	10.8450000	14.4600000
390	1	-16.2675000	12.6525000	14.4600000
391	1	-18.0750000	12.6525000	16.2675000
392	1	-16.2675000	10.8450000	16.2675000
393	1	-18.0750000	10.8450000	18.0750000
394	1	-16.2675000	12.6525000	18.0750000
395	1	-18.0750000	12.6525000	19.8825000
396	1	-16.2675000	10.8450000	19.8825000
397	1	-18.0750000	14.4600000	-18.0750000
398	1	-16.2675000	16.2675000	-18.0750000
399	1	-18.0750000	16.2675000	-16.2675000
400	1	-16.2675000	14.4600000	-16.2675000
401	1	-18.0750000	14.4600000	-14.4600000
402	1	-16.2675000	16.2675000	-14.4600000
403	1	-18.0750000	16.2675000	-12.6525000
404	1	-16.2675000	14.4600000	-12.6525000
405	1	-18.0750000	14.4600000	-10.8450000
406	1	-16.2675000	16.2675000	-10.8450000
407	1	-18.0750000	16.2675000	-9.0375000
408	1	-16.2675000	14.4600000	-9.0375000
409	1	-18.0750000	14.4600000	-7.2300000
410	1	-16.2675000	16.2675000	-7.2300000
411	1	-18.0750000	16.2675000	-5.4225000
412	1	-16.2675000	14.4600000	-5.4225000
413	1	-18.0750000	14.4600000	-3.6150000
414	1	-16.2675000	16.2675000	-3.6150000
415	1	-18.0750000	16.2675000	-1.8075000
416	1	-16.2675000	14.4600000	-1.8075000
417	1	-18.0750000	14.4600000	0.0000000
418	1	-16.2675000	16.2675000	0.0000000
419	1	-18.0750000	16.2675000	1.8075000
420	1	-16.2675000	14.4600000	1.8075000
421	1	-18.0750000	14.4600000	3.6150000
422	1	-16.2675000	16.2675000	3.6150000
423	1	-18.0750000	16.2675000	5.4225000
424	1	-16.2675000	14.4600000	5.4225000
425	1	-18.0750000	14.4600000	7.2300000
426	1	-16.2675000	16.2675000	7.2300000
427	1	-18.0750000	16.2675000	9.0375000
428	1	-16.2675000	14.4600000	9.0375000
429	1	-18.0750000	14.4600000	10.8450000
430	1	-16.2675000	16.2675000	10.8450000
431	1	-18.0750000	16.2675000	12.6525000
432	1	-16.2675000	14.4600000	12.6525000
433	1	-18.0750000	14.4600000	14.4600000
434	1	-16.2675000	16.2675000	14.4600000
435	1	-18.0750000	16.2675000	16.2675000
436	1	-16.2675000	14.4600000	16.2675000
437	1	-18.0750000	14.4600000	18.0750000
438	1	-16.2675000	16.2675000	18.0750000
439	1	-18.0750000	16.2675000	19.8825000
440	1	-16.2675000	14.4600000	19.8825000
441	1	-18.0750000	18.0750000	-18.0750000
442	1	-16.2675000	19.8825000	-18.0750000
443	1	-18.0750000	19.8825000	-16.2675000
444	1	-16.2675000	18.0750000	-16.2675000
445	1	-18.0750000	18.0750000	-14.4600000
446	1	-16.2675000	19.8825000	-14.4600000
447	1	-18.0750000	19.8825000	-12.6525000
448	1	-16.2675000	18.0750000	-12.6525000
449	1	-18.0750000	18.0750000	-10.8450000
450	1	-16.2675000	19.8825000	-10.8450000
451	1	-18.0750000	19.8825000	-9.0375000
452	1	-16.2675000	18.0750000	-9.0375000
453	1	-18.0750000	18.0750000	-7.2300000
454	1	-16.2675000	19.8825000	-7.2300000
455	1	-18.0750000	19.8825000	-5.4225000
456	1	-16.2675000	18.0750000	-5.4225000
457	1	-18.0750000	18.0750000	-3.6150000
458	1	-16.2675000	19.8825000	-3.6150000
459	1	-18.0750000	19.8825000	-1.8075000
460	1	-16.2675000	18.0750000	-1.8075000
461	1	-18.0750000	18.0750000	0.0000000
462	1	-16.2675000	19.8825000	0.0000000
463	1	-18.0750000	19.8825000	1.8075000
464	1	-16.2675000	18.0750000	1.8075000
465	1	-18.0750000	18.0750000	3.6150000
466	1	-16.2675000	19.8825000	3.6150000
467	1	-18.0750000	19.8825000	5.4225000
468	1	-16.2675000	18.0750000	5.4225000
469	1	-18.0750000	18.0750000	7.2300000
470	1	-16.2675000	19.8825000	7.2300000
471	1	-18.0750000	19.8825000	9.0375000
472	1	-16.2675000	18.0750000	9.0375000
473	1	-18.0750000	18.0750000	10.8450000
474	1	-16.2675000	19.8825000	10.8450000
475	1	-18.0750000	19.8825000	12.6525000
476	1	-16.2675000	18.0750000	12.6525000
477	1	-18.0750000	18.0750000	14.4600000
478	1	-16.2675000	19.8825000	14.4600000
479	1	-18.0750000	19.8825000	16.2675000
480	1	-16.2675000	18.0750000	16.2675000
481	1	-18.0750000	18.0750000	18.0750000
482	1	-16.2675000	19.8825000	18.0750000
483	1	-18.0750000	19.8825000	19.8825000
484	1	-16.2675000	18.0750000	19.8825000
485	1	-14.4600000	-18.0750000	-18.0750000
486	1	-12.6525000	-16.2675000	-18.0750000
487	1	-14.4600000	-16.2675000	-16.2675000
488	1	-12.6525000	-18.0750000	-16.2675000
489	1	-14.4600000	-18.0750000	-14.4600000
490	1	-12.6525000	-16.2675000	-14.4600000
491	1	-14.4600000	-16.2675000	-12.6525000
492	1	-12.6525000	-18.0750000	-12.6525000
493	1	-14.4600000	-18.0750000	-10.8450000
494	1	-12.6525000	-16.2675000	-10.8450000
495	1	-14.4600000	-16.2675000	-9.0375000
496	1	-12.6525000	-18.0750000	-9.0375000
497	1	-14.4600000	-18.0750000	-7.2300000
498	1	-12.6525000	-16.2675000	-7.2300000
499	1	-14.4600000	-16.2675000	-5.4225000
500	1	-12.6525000	-18.0750000	-5.4225000
501	1	-14.4600000	-18.0750000	-3.6150000
502	1	-12.6525000	-16.2675000	-3.6150000
503	1	-14.4600000	-16.2675000	-1.8075000
504	1	-12.6525000	-18.0750000	-1.8075000
505	1	-14.4600000	-18.0750000	0.0000000
506	1	-12.6525000	-16.2675000	0.0000000
507	1	-14.4600000	-16.2675000	1.8075000
508	1	-12.6525000	-18.0750000	1.8075000
509	1	-14.4600000	-18.0750000	3.6150000
510	1	-12.6525000	-16.2675000	3.6150000
511	1	-14.4600000	-16.2675000	5.4225000
512	1	-12.6525000	-18.0750000	5.4225000
513	1	-14.4600000	-18.0750000	7.2300000
514	1	-12.6525000	-16.2675000	7.2300000
515	1	-14.4600000	-16.2675000	9.0375000
516	1	-12.6525000	-18.0750000	9.0375000
517	1	-14.4600000	-18.0750000	10.8450000
518	1	-12.6525000	-16.2675000	10.8450000
519	1	-14.4600000	-16.2675000	12.6525000
520	1	-12.6525000	-18.0750000	12.6525000
521	1	-14.4600000	-18.0750000	14.4600000
522	1	-12.6525000	-16.2675000	14.4600000
523	1	-14.4600000	-16.2675000	16.2675000
524	1	-12.6525000	-18.0750000	16.2675000
525	1	-14.4600000	-18.0750000	18.0750000
526	1	-12.6525000	-16.2675000	18.0750000
527	1	-14.4600000	-16.2675000	19.8825000
528	1	-12.6525000	-18.0750000	19.8825000
529	1	-14.4600000	-14.4600000	-18.0750000
530	1	-12.6525000	-12.6525000	-18.0750000
531	1	-14.4600000	-12.6525000	-16.2675000
532	1	-12.6525000	-14.4600000	-16.2675000
533	1	-14.4600000	-14.4600000	-14.4600000
534	1	-12.6525000	-12.6525000	-14.4600000
535	1	-14.4600000	-12.6525000	-12.6525000
536	1	-12.6525000	-14.4600000	-12.6525000
537	1	-14.4600000	-14.4600000	-10.8450000
538	1	-12.6525000	-12.6525000	-10.8450000
539	1	-14.4600000	-12.6525000	-9.0375000
540	1	-12.6525000	-14.4600000	-9.0375000
541	1	-14.4600000	-14.4600000	-7.2300000
542	1	-12.6525000	-12.6525000	-7.2300000
543	1	-14.4600000	-12.6525000	-5.4225000
544	1	-12.6525000	-14.4600000	-5.4225000
545	1	-14.4600000	-14.4600000	-3.6150000
546	1	-12.6525000	-12.6525000	-3.6150000
547	1	-14.4600000	-12.6525000	-1.8075000
548	1	-12.6525000	-14.4600000	-1.8075000
549	1	-14.4600000	-14.4600000	0.0000000
550	1	-12.6525000	-12.6525000	0.0000000
551	1	-14.4600000	-12.6525000	1.8075000
552	1	-12.6525000	-14.4600000	1.8075000
553	1	-14.4600000	-14.4600000	3.6150000
554	1	-12.6525000	-12.6525000	3.6150000
555	1	-14.4600000	-12.6525000	5.4225000
556	1	-12.6525000	-14.4600000	5.4225000
557	1	-14.4600000	-14.4600000	7.2300000
558	1	-12.6525000	-12.6525000	7.2300000
559	1	-14.4600000	-12.6525000	9.0375000
560	1	-12.6525000	-14.4600000	9.0375000
561	1	-14.4600000	-14.4600000	10.8450000
562	1	-12.6525000	-12.6525000	10.8450000
563	1	-14.4600000	-12.6525000	12.6525000
564	1	-12.6525000	-14.4600000	12.6525000
565	1	-14.4600000	-14.4600000	14.4600000
566	1	-12.6525000	-12.6525000	14.4600000
567	1	-14.4600000	-12.6525000	16.2675000
568	1	-12.6525000	-14.4600000	16.2675000
569	1	-14.4600000	-14.4600000	18.0750000
570	1	-12.6525000	-12.6525000	18.0750000
571	1	-14.4600000	-12.6525000	19.8825000
572	1	-12.6525000	-14.4600000	19.8825000
573	1	-14.4600000	-10.8450000	-18.0750000
574	1	-12.6525000	-9.0375000	-18.0750000
575	1	-14.4600000	-9.0375000	-16.2675000
576	1	-12.6525000	-10.8450000	-16.2675000
577	1	-14.4600000	-10.8450000	-14.4600000
578	1	-12.6525000	-9.0375000	-14.4600000
579	1	-14.4600000	-9.0375000	-12.6525000
580	1	-12.6525000	-10.8450000	-12.6525000
581	1	-14.4600000	-10.8450000	-10.8450000
582	1	-12.6525000	-9.0375000	-10.8450000
583	1	-14.4600000	-9.0375000	-9.0375000
584	1	-12.6525000	-10.8450000	-9.0375000
585	1	-14.4600000	-10.8450000	-7.2300000
586	1	-12.6525000	-9.0375000	-7.2300000
587	1	-14.4600000	-9.0375000	-5.4225000
588	1	-12.6525000	-10.8450000	-5.4225000
589	1	-14.4600000	-10.8450000	-3.6150000
590	1	-12.6525000	-9.0375000	-3.6150000
591	1	-14.4600000	-9.0375000	-1.8075000
592	1	-12.6525000	-10.8450000	-1.8075000
593	1	-14.4600000	-10.8450000	0.0000000
594	1	-12.6525000	-9.0375000	0.0000000
595	1	-14.4600000	-9.0375000	1.8075000
596	1	-12.6525000	-10.8450000	1.8075000
597	1	-14.4600000	-10.8450000	3.6150000
598	1	-12.6525000	-9.0375000	3.6150000
599	1	-14.4600000	-9.0375000	5.4225000
600	1	-12.6525000	-10.8450000	5.4225000
601	1	-14.4600000	-10.8450000	7.2300000
602	1	-12.6525000	-9.0375000	7.2300000
603	1	-14.4600000	-9.0375000	9.0375000
604	1	-12.6525000	-10.8450000	9.0375000
605	1	-14.4600000	-10.8450000	10.8450000
606	1	-12.6525000	-9.0375000	10.8450000
607	1	-14.4600000	-9.0375000	12.6525000
608	1	-12.6525000	-10.8450000	12.6525000
609	1	-14.4600000	-10.8450000	14.4600000
610	1	-12.6525000	-9.0375000	14.4600000
611	1	-14.4600000	-9.0375000	16.2675000
612	1	-12.6525000	-10.8450000	16.2675000
613	1	-14.4600000	-10.8450000	18.0750000
614	1	-12.6525000	-9.0375000	18.0750000
615	1	-14.4600000	-9.0375000	19.8825000
616	1	-12.6525000	-10.8450000	19.8825000
617	1	-14.4600000	-7.2300000	-18.0750000
618	1	-12.6525000	-5.4225000	-18.0750000
619	1	-14.4600000	-5.4225000	-16.2675000
620	1	-12.6525000	-7.2300000	-16.2675000
621	1	-14.4600000	-7.2300000	-14.4600000
622	1	-12.6525000	-5.4225000	-14.4600000
623	1	-14.4600000	-5.4225000	-12.6525000
624	1	-12.6525000	-7.2300000	-12.6525000
625	1	-14.4600000	-7.2300000	-10.8450000
626	1	-12.6525000	-5.4225000	-10.8450000
627	1	-14.4600000	-5.4225000	-9.0375000
628	1	-12.6525000	-7.2300000	-9.0375000
629	1	-14.4600000	-7.2300000	-7.2300000
630	1	-12.6525000	-5.4225000	-7.2300000
631	1	-14.4600000	-5.4225000	-5.4225000
632	1	-12.6525000	-7.2300000	-5.4225000
633	1	-14.4600000	-7.2300000	-3.6150000
634	1	-12.6525000	-5.4225000	-3.6150000
635	1	-14.4600000	-5.4225000	-1.8075000
636	1	-12.6525000	-7.2300000	-1.8075000
637	1	-14.4600000	-7.2300000	0.0000000
638	1	-12.6525000	-5.4225000	0.0000000
639	1	-14.4600000	-5.4225000	1.8075000
640	1	-12.6525000	-7.2300000	1.8075000
641	1	-14.4600000	-7.2300000	3.6150000
642	1	-12.6525000	-5.4225000	3.6150000
643	1	-14.4600000	-5.4225000	5.4225000
644	1	-12.6525000	-7.2300000	5.4225000
645	1	-14.4600000	-7.2300000	7.2300000
646	1	-12.6525000	-5.4225000	7.2300000
647	1	-14.4600000	-5.4225000	9.0375000
648	1	-12.6525000	-7.2300000	9.0375000
649	1	-14.4600000	-7.2300000	10.8450000
650	1	-12.6525000	-5.4225000	10.8450000
651	1	-14.4600000	-5.4225000	12.6525000
652	1	-12.6525000	-7.2300000	12.6525000
653	1	-14.4600000	-7.2300000	14.4600000
654	1	-12.6525000	-5.4225000	14.4600000
655	1	-14.4600000	-5.4225000	16.2675000
656	1	-12.6525000	-7.2300000	16.2675000
657	1	-14.4600000	-7.2300000	18.0750000
658	1	-12.6525000	-5.4225000	18.0750000
659	1	-14.4600000	-5.4225000	19.8825000
660	1	-12.6525000	-7.2300000	19.8825000
661	1	-14.4600000	-3.6150000	-18.0750000
662	1	-12.6525000	-1.8075000	-18.0750000
663	1	-14.4600000	-1.8075000	-16.2675000
664	1	-12.6525000	-3.6150000	-16.2675000
665	1	-14.4600000	-3.6150000	-14.4600000
666	1	-12.6525000	-1.8075000	-14.4600000
667	1	-14.4600000	-1.8075000	-12.6525000
668	1	-12.6525000	-3.6150000	-12.6525000
669	1	-14.4600000	-3.6150000	-10.8450000
670	1	-12.6525000	-1.8075000	-10.8450000
671	1	-14.4600000	-1.8075000	-9.0375000
672	1	-12.6525000	-3.6150000	-9.0375000
673	1	-14.4600000	-3.6150000	-7.2300000
674	1	-12.6525000	-1.8075000	-7.2300000
675	1	-14.4600000	-1.8075000	-5.4225000
676	1	-12.6525000	-3.6150000	-5.4225000
677	1	-14.4600000	-3.6150000	-3.6150000
678	1	-12.6525000	-1.8075000	-3.6150000
679	1	-14.4600000	-1.8075000	-1.8075000
680	1	-12.6525000	-3.6150000	-1.8075000
681	1	-14.4600000	-3.6150000	0.0000000
682	1	-12.6525000	-1.8075000	0.0000000
683	1	-14.4600000	-1.8075000	1.8075000
684	1	-12.6525000	-3.6150000	1.8075000
685	1	-14.4600000	-3.6150000	3.6150000
686	1	-12.6525000	-1.8075000	3.6150000
687	1	-14.4600000	-1.8075000	5.4225000
688	1	-12.6525000	-3.6150000	5.4225000
689	1	-14.4600000	-3.6150000	7.2300000
690	1	-12.6525000	-1.8075000	7.2300000
691	1	-14.4600000	-1.8075000	9.0375000
692	1	-12.6525000	-3.6150000	9.0375000
693	1	-14.4600000	-3.6150000	10.8450000
694	1	-12.6525000	-1.8075000	10.8450000
695	1	-14.4600000	-1.8075000	12.6525000
696	1	-12.6525000	-3.6150000	12.6525000
697	1	-14.4600000	-3.6150000	14.4600000
698	1	-12.6525000	-1.8075000	14.4600000
699	1	-14.4600000	-1.8075000	16.2675000
700	1	-12.6525000	-3.6150000	16.2675000
701	1	-14.4600000	-3.6150000	18.0750000
702	1	-12.6525000	-1.8075000	18.0750000
703	1	-14.4600000	-1.8075000	19.8825000
704	1	-12.6525000	-3.6150000	19.8825000
705	1	-14.4600000	0.0000000	-18.0750000
706	1	-12.6525000	1.8075000	-18.0750000
707	1	-14.4600000	1.8075000	-16.2675000
708	1	-12.6525000	0.0000000	-16.2675000
709	1	-14.4600000	0.0000000	-14.4600000
710	1	-12.6525000	1.8075000	-14.4600000
711	1	-14.4600000	1.8075000	-12.6525000
712	1	-12.6525000	0.0000000	-12.6525000
713	1	-14.4600000	0.0000000	-10.8450000
714	1	-12.6525000	1.8075000	-10.8450000
715	1	-14.4600000	1.8075000	-9.0375000
716	1	-12.6525000	0.0000000	-9.0375000
717	1	-14.4600000	0.0000000	-7.2300000
718	1	-12.6525000	1.8075000	-7.2300000
719	1	-14.4600000	1.8075000	-5.4225000
720	1	-12.6525000	0.0000000	-5.4225000
721	1	-14.4600000	0.0000000	-3.6150000
722	1	-12.6525000	1.8075000	-3.6150000
723	1	-14.4600000	1.8075000	-1.8075000
724	1	-12.6525000	0.0000000	-1.8075000
725	1	-14.4600000	0.0000000	0.0000000
726	1	-12.6525000	1.8075000	0.0000000
727	1	-14.4600000	1.8075000	1.8075000
728	1	-12.6525000	-0.0000000	1.8075000
729	1	-14.4600000	-0.0000000	3.6150000
730	1	-12.6525000	1.8075000	3.6150000
731	1	-14.4600000	1.8075000	5.4225000
732	1	-12.6525000	-0.0000000	5.4225000
733	1	-14.4600000	-0.0000000	7.2300000
734	1	-12.6525000	1.8075000	7.2300000
735	1	-14.4600000	1.8075000	9.0375000
736	1	-12.6525000	-0.0000000	9.0375000
737	1	-14.4600000	-0.0000000	10.8450000
738	1	-12.6525000	1.8075000	10.8450000
739	1	-14.4600000	1.8075000	12.6525000
740	1	-12.6525000	-0.0000000	12.6525000
741	1	-14.4600000	-0.0000000	14.4600000
742	1	-12.6525000	1.8075000	14.4600000
743	1	-14.4600000	1.8075000	16.2675000
744	1	-12.6525000	-0.0000000	16.2675000
745	1	-14.4600000	-0.0000000	18.0750000
746	1	-12.6525000	1.8075000	18.0750000
747	1	-14.4600000	1.8075000	19.8825000
748	1	-12.6525000	-0.0000000	19.8825000
749	1	-14.4600000	3.6150000	-18.0750000